V -t * -v 1.0a5 -a 0
W -t * -x 500 -y 500
A -t * -n 1 -p 0 -o 0x7fffffff -c 30 -a 1
A -t * -h 1 -m 1073741823 -s 0
+ -t 0.029290548 -s 1 -d -1 -p message -e 32 -c 2 -a 0 -i 0 -k RTR 
- -t 0.029290548 -s 1 -d -1 -p message -e 32 -c 2 -a 0 -i 0 -k RTR
h -t 0.029290548 -s 1 -d -1 -p message -e 32 -c 2 -a 0 -i 0 -k RTR
+ -t 1.119926192 -s 0 -d -1 -p message -e 32 -c 2 -a 0 -i 1 -k RTR 
- -t 1.119926192 -s 0 -d -1 -p message -e 32 -c 2 -a 0 -i 1 -k RTR
h -t 1.119926192 -s 0 -d -1 -p message -e 32 -c 2 -a 0 -i 1 -k RTR
n -t 10.000000 -s 0 -x 5.000000 -y 2.000000 -U 0.683941 -V 0.729537 -T 21.931712
+ -t 10.000000000 -s 0 -d -1 -p tcp -e 40 -c 2 -a 0 -i 2 -k AGT 
- -t 10.000000000 -s 0 -d -1 -p tcp -e 40 -c 2 -a 0 -i 2 -k AGT
h -t 10.000000000 -s 0 -d -1 -p tcp -e 40 -c 2 -a 0 -i 2 -k AGT
+ -t 12.941172739 -s 1 -d -1 -p message -e 32 -c 2 -a 0 -i 3 -k RTR 
- -t 12.941172739 -s 1 -d -1 -p message -e 32 -c 2 -a 0 -i 3 -k RTR
h -t 12.941172739 -s 1 -d -1 -p message -e 32 -c 2 -a 0 -i 3 -k RTR
+ -t 13.000000000 -s 0 -d -1 -p tcp -e 40 -c 2 -a 0 -i 4 -k AGT 
- -t 13.000000000 -s 0 -d -1 -p tcp -e 40 -c 2 -a 0 -i 4 -k AGT
h -t 13.000000000 -s 0 -d -1 -p tcp -e 40 -c 2 -a 0 -i 4 -k AGT
+ -t 13.242656084 -s 0 -d -1 -p message -e 32 -c 2 -a 0 -i 5 -k RTR 
- -t 13.242656084 -s 0 -d -1 -p message -e 32 -c 2 -a 0 -i 5 -k RTR
h -t 13.242656084 -s 0 -d -1 -p message -e 32 -c 2 -a 0 -i 5 -k RTR
+ -t 19.000000000 -s 0 -d -1 -p tcp -e 40 -c 2 -a 0 -i 6 -k AGT 
- -t 19.000000000 -s 0 -d -1 -p tcp -e 40 -c 2 -a 0 -i 6 -k AGT
h -t 19.000000000 -s 0 -d -1 -p tcp -e 40 -c 2 -a 0 -i 6 -k AGT
+ -t 24.799296167 -s 1 -d -1 -p message -e 32 -c 2 -a 0 -i 7 -k RTR 
- -t 24.799296167 -s 1 -d -1 -p message -e 32 -c 2 -a 0 -i 7 -k RTR
h -t 24.799296167 -s 1 -d -1 -p message -e 32 -c 2 -a 0 -i 7 -k RTR
+ -t 27.719583723 -s 0 -d -1 -p message -e 32 -c 2 -a 0 -i 8 -k RTR 
- -t 27.719583723 -s 0 -d -1 -p message -e 32 -c 2 -a 0 -i 8 -k RTR
h -t 27.719583723 -s 0 -d -1 -p message -e 32 -c 2 -a 0 -i 8 -k RTR
+ -t 31.000000000 -s 0 -d -1 -p tcp -e 40 -c 2 -a 0 -i 9 -k AGT 
- -t 31.000000000 -s 0 -d -1 -p tcp -e 40 -c 2 -a 0 -i 9 -k AGT
h -t 31.000000000 -s 0 -d -1 -p tcp -e 40 -c 2 -a 0 -i 9 -k AGT
+ -t 39.083332528 -s 1 -d -1 -p message -e 32 -c 2 -a 0 -i 10 -k RTR 
- -t 39.083332528 -s 1 -d -1 -p message -e 32 -c 2 -a 0 -i 10 -k RTR
h -t 39.083332528 -s 1 -d -1 -p message -e 32 -c 2 -a 0 -i 10 -k RTR
+ -t 40.918940913 -s 0 -d -1 -p message -e 32 -c 2 -a 0 -i 11 -k RTR 
- -t 40.918940913 -s 0 -d -1 -p message -e 32 -c 2 -a 0 -i 11 -k RTR
h -t 40.918940913 -s 0 -d -1 -p message -e 32 -c 2 -a 0 -i 11 -k RTR
n -t 50.000000 -s 1 -x 390.000000 -y 385.000000 -U -10.606602 -V -10.606602 -T 34.412530
+ -t 53.478111556 -s 1 -d -1 -p message -e 32 -c 2 -a 0 -i 12 -k RTR 
- -t 53.478111556 -s 1 -d -1 -p message -e 32 -c 2 -a 0 -i 12 -k RTR
h -t 53.478111556 -s 1 -d -1 -p message -e 32 -c 2 -a 0 -i 12 -k RTR
+ -t 54.709362820 -s 0 -d -1 -p message -e 32 -c 2 -a 0 -i 13 -k RTR 
- -t 54.709362820 -s 0 -d -1 -p message -e 32 -c 2 -a 0 -i 13 -k RTR
h -t 54.709362820 -s 0 -d -1 -p message -e 32 -c 2 -a 0 -i 13 -k RTR
+ -t 55.000000000 -s 0 -d -1 -p tcp -e 40 -c 2 -a 0 -i 14 -k AGT 
- -t 55.000000000 -s 0 -d -1 -p tcp -e 40 -c 2 -a 0 -i 14 -k AGT
h -t 55.000000000 -s 0 -d -1 -p tcp -e 40 -c 2 -a 0 -i 14 -k AGT
+ -t 65.134134662 -s 1 -d -1 -p message -e 32 -c 2 -a 0 -i 15 -k RTR 
- -t 65.134134662 -s 1 -d -1 -p message -e 32 -c 2 -a 0 -i 15 -k RTR
h -t 65.134134662 -s 1 -d -1 -p message -e 32 -c 2 -a 0 -i 15 -k RTR
+ -t 69.500212994 -s 0 -d -1 -p message -e 32 -c 2 -a 0 -i 16 -k RTR 
- -t 69.500212994 -s 0 -d -1 -p message -e 32 -c 2 -a 0 -i 16 -k RTR
h -t 69.500212994 -s 0 -d -1 -p message -e 32 -c 2 -a 0 -i 16 -k RTR
r -t 69.501313756 -s 1 -d -1 -p message -e 32 -c 2 -a 0 -i 16 -k RTR
+ -t 76.429530123 -s 1 -d -1 -p message -e 32 -c 2 -a 0 -i 17 -k RTR 
- -t 76.429530123 -s 1 -d -1 -p message -e 32 -c 2 -a 0 -i 17 -k RTR
h -t 76.429530123 -s 1 -d -1 -p message -e 32 -c 2 -a 0 -i 17 -k RTR
r -t 76.430670539 -s 0 -d -1 -p message -e 32 -c 2 -a 0 -i 17 -k RTR
+ -t 76.430670539 -s 0 -d 1 -p tcp -e 80 -c 2 -a 0 -i 2 -k RTR 
- -t 76.430670539 -s 0 -d 1 -p tcp -e 80 -c 2 -a 0 -i 2 -k RTR
h -t 76.430670539 -s 0 -d 1 -p tcp -e 80 -c 2 -a 0 -i 2 -k RTR
+ -t 76.430670539 -s 0 -d 1 -p tcp -e 80 -c 2 -a 0 -i 4 -k RTR 
- -t 76.430670539 -s 0 -d 1 -p tcp -e 80 -c 2 -a 0 -i 4 -k RTR
h -t 76.430670539 -s 0 -d 1 -p tcp -e 80 -c 2 -a 0 -i 4 -k RTR
d -t 76.430670539 -s 0 -d 1 -p tcp -e 80 -c 2 -a 0 -i 2 -k IFQ
+ -t 76.430670539 -s 0 -d 1 -p tcp -e 80 -c 2 -a 0 -i 6 -k RTR 
- -t 76.430670539 -s 0 -d 1 -p tcp -e 80 -c 2 -a 0 -i 6 -k RTR
h -t 76.430670539 -s 0 -d 1 -p tcp -e 80 -c 2 -a 0 -i 6 -k RTR
d -t 76.430670539 -s 0 -d 1 -p tcp -e 80 -c 2 -a 0 -i 4 -k IFQ
+ -t 76.430670539 -s 0 -d 1 -p tcp -e 80 -c 2 -a 0 -i 9 -k RTR 
- -t 76.430670539 -s 0 -d 1 -p tcp -e 80 -c 2 -a 0 -i 9 -k RTR
h -t 76.430670539 -s 0 -d 1 -p tcp -e 80 -c 2 -a 0 -i 9 -k RTR
d -t 76.430670539 -s 0 -d 1 -p tcp -e 80 -c 2 -a 0 -i 6 -k RTR
d -t 76.430670539 -s 0 -d 1 -p tcp -e 80 -c 2 -a 0 -i 9 -k RTR
+ -t 76.430670539 -s 0 -d 1 -p tcp -e 80 -c 2 -a 0 -i 14 -k RTR 
- -t 76.430670539 -s 0 -d 1 -p tcp -e 80 -c 2 -a 0 -i 14 -k RTR
h -t 76.430670539 -s 0 -d 1 -p tcp -e 80 -c 2 -a 0 -i 14 -k RTR
r -t 76.438053447 -s 1 -d 1 -p tcp -e 80 -c 2 -a 0 -i 14 -k AGT
+ -t 76.438053447 -s 1 -d -1 -p ack -e 40 -c 2 -a 0 -i 18 -k AGT 
- -t 76.438053447 -s 1 -d -1 -p ack -e 40 -c 2 -a 0 -i 18 -k AGT
h -t 76.438053447 -s 1 -d -1 -p ack -e 40 -c 2 -a 0 -i 18 -k AGT
+ -t 76.438053447 -s 1 -d 0 -p ack -e 60 -c 2 -a 0 -i 18 -k RTR 
- -t 76.438053447 -s 1 -d 0 -p ack -e 60 -c 2 -a 0 -i 18 -k RTR
h -t 76.438053447 -s 1 -d 0 -p ack -e 60 -c 2 -a 0 -i 18 -k RTR
r -t 76.446087674 -s 0 -d 0 -p ack -e 60 -c 2 -a 0 -i 18 -k AGT
+ -t 76.446087674 -s 0 -d -1 -p tcp -e 1040 -c 2 -a 0 -i 19 -k AGT 
- -t 76.446087674 -s 0 -d -1 -p tcp -e 1040 -c 2 -a 0 -i 19 -k AGT
h -t 76.446087674 -s 0 -d -1 -p tcp -e 1040 -c 2 -a 0 -i 19 -k AGT
+ -t 76.446087674 -s 0 -d 1 -p tcp -e 1060 -c 2 -a 0 -i 19 -k RTR 
- -t 76.446087674 -s 0 -d 1 -p tcp -e 1060 -c 2 -a 0 -i 19 -k RTR
h -t 76.446087674 -s 0 -d 1 -p tcp -e 1060 -c 2 -a 0 -i 19 -k RTR
r -t 76.456372918 -s 1 -d 1 -p tcp -e 1060 -c 2 -a 0 -i 19 -k AGT
+ -t 76.456372918 -s 1 -d -1 -p ack -e 40 -c 2 -a 0 -i 20 -k AGT 
- -t 76.456372918 -s 1 -d -1 -p ack -e 40 -c 2 -a 0 -i 20 -k AGT
h -t 76.456372918 -s 1 -d -1 -p ack -e 40 -c 2 -a 0 -i 20 -k AGT
+ -t 76.456372918 -s 1 -d 0 -p ack -e 60 -c 2 -a 0 -i 20 -k RTR 
- -t 76.456372918 -s 1 -d 0 -p ack -e 60 -c 2 -a 0 -i 20 -k RTR
h -t 76.456372918 -s 1 -d 0 -p ack -e 60 -c 2 -a 0 -i 20 -k RTR
r -t 76.458818161 -s 0 -d 0 -p ack -e 60 -c 2 -a 0 -i 20 -k AGT
+ -t 76.458818161 -s 0 -d -1 -p tcp -e 1040 -c 2 -a 0 -i 21 -k AGT 
- -t 76.458818161 -s 0 -d -1 -p tcp -e 1040 -c 2 -a 0 -i 21 -k AGT
h -t 76.458818161 -s 0 -d -1 -p tcp -e 1040 -c 2 -a 0 -i 21 -k AGT
+ -t 76.458818161 -s 0 -d 1 -p tcp -e 1060 -c 2 -a 0 -i 21 -k RTR 
- -t 76.458818161 -s 0 -d 1 -p tcp -e 1060 -c 2 -a 0 -i 21 -k RTR
h -t 76.458818161 -s 0 -d 1 -p tcp -e 1060 -c 2 -a 0 -i 21 -k RTR
+ -t 76.458818161 -s 0 -d -1 -p tcp -e 1040 -c 2 -a 0 -i 22 -k AGT 
- -t 76.458818161 -s 0 -d -1 -p tcp -e 1040 -c 2 -a 0 -i 22 -k AGT
h -t 76.458818161 -s 0 -d -1 -p tcp -e 1040 -c 2 -a 0 -i 22 -k AGT
+ -t 76.458818161 -s 0 -d 1 -p tcp -e 1060 -c 2 -a 0 -i 22 -k RTR 
- -t 76.458818161 -s 0 -d 1 -p tcp -e 1060 -c 2 -a 0 -i 22 -k RTR
h -t 76.458818161 -s 0 -d 1 -p tcp -e 1060 -c 2 -a 0 -i 22 -k RTR
r -t 76.469003404 -s 1 -d 1 -p tcp -e 1060 -c 2 -a 0 -i 21 -k AGT
+ -t 76.469003404 -s 1 -d -1 -p ack -e 40 -c 2 -a 0 -i 23 -k AGT 
- -t 76.469003404 -s 1 -d -1 -p ack -e 40 -c 2 -a 0 -i 23 -k AGT
h -t 76.469003404 -s 1 -d -1 -p ack -e 40 -c 2 -a 0 -i 23 -k AGT
+ -t 76.469003404 -s 1 -d 0 -p ack -e 60 -c 2 -a 0 -i 23 -k RTR 
- -t 76.469003404 -s 1 -d 0 -p ack -e 60 -c 2 -a 0 -i 23 -k RTR
h -t 76.469003404 -s 1 -d 0 -p ack -e 60 -c 2 -a 0 -i 23 -k RTR
r -t 76.471068645 -s 0 -d 0 -p ack -e 60 -c 2 -a 0 -i 23 -k AGT
+ -t 76.471068645 -s 0 -d -1 -p tcp -e 1040 -c 2 -a 0 -i 24 -k AGT 
- -t 76.471068645 -s 0 -d -1 -p tcp -e 1040 -c 2 -a 0 -i 24 -k AGT
h -t 76.471068645 -s 0 -d -1 -p tcp -e 1040 -c 2 -a 0 -i 24 -k AGT
+ -t 76.471068645 -s 0 -d 1 -p tcp -e 1060 -c 2 -a 0 -i 24 -k RTR 
- -t 76.471068645 -s 0 -d 1 -p tcp -e 1060 -c 2 -a 0 -i 24 -k RTR
h -t 76.471068645 -s 0 -d 1 -p tcp -e 1060 -c 2 -a 0 -i 24 -k RTR
r -t 76.481253885 -s 1 -d 1 -p tcp -e 1060 -c 2 -a 0 -i 22 -k AGT
+ -t 76.481253885 -s 1 -d -1 -p ack -e 40 -c 2 -a 0 -i 25 -k AGT 
- -t 76.481253885 -s 1 -d -1 -p ack -e 40 -c 2 -a 0 -i 25 -k AGT
h -t 76.481253885 -s 1 -d -1 -p ack -e 40 -c 2 -a 0 -i 25 -k AGT
+ -t 76.481253885 -s 1 -d 0 -p ack -e 60 -c 2 -a 0 -i 25 -k RTR 
- -t 76.481253885 -s 1 -d 0 -p ack -e 60 -c 2 -a 0 -i 25 -k RTR
h -t 76.481253885 -s 1 -d 0 -p ack -e 60 -c 2 -a 0 -i 25 -k RTR
r -t 76.483259125 -s 0 -d 0 -p ack -e 60 -c 2 -a 0 -i 25 -k AGT
+ -t 76.483259125 -s 0 -d -1 -p tcp -e 1040 -c 2 -a 0 -i 26 -k AGT 
- -t 76.483259125 -s 0 -d -1 -p tcp -e 1040 -c 2 -a 0 -i 26 -k AGT
h -t 76.483259125 -s 0 -d -1 -p tcp -e 1040 -c 2 -a 0 -i 26 -k AGT
+ -t 76.483259125 -s 0 -d 1 -p tcp -e 1060 -c 2 -a 0 -i 26 -k RTR 
- -t 76.483259125 -s 0 -d 1 -p tcp -e 1060 -c 2 -a 0 -i 26 -k RTR
h -t 76.483259125 -s 0 -d 1 -p tcp -e 1060 -c 2 -a 0 -i 26 -k RTR
r -t 76.493304364 -s 1 -d 1 -p tcp -e 1060 -c 2 -a 0 -i 24 -k AGT
+ -t 76.493304364 -s 1 -d -1 -p ack -e 40 -c 2 -a 0 -i 27 -k AGT 
- -t 76.493304364 -s 1 -d -1 -p ack -e 40 -c 2 -a 0 -i 27 -k AGT
h -t 76.493304364 -s 1 -d -1 -p ack -e 40 -c 2 -a 0 -i 27 -k AGT
+ -t 76.493304364 -s 1 -d 0 -p ack -e 60 -c 2 -a 0 -i 27 -k RTR 
- -t 76.493304364 -s 1 -d 0 -p ack -e 60 -c 2 -a 0 -i 27 -k RTR
h -t 76.493304364 -s 1 -d 0 -p ack -e 60 -c 2 -a 0 -i 27 -k RTR
r -t 76.495589601 -s 0 -d 0 -p ack -e 60 -c 2 -a 0 -i 27 -k AGT
+ -t 76.495589601 -s 0 -d -1 -p tcp -e 1040 -c 2 -a 0 -i 28 -k AGT 
- -t 76.495589601 -s 0 -d -1 -p tcp -e 1040 -c 2 -a 0 -i 28 -k AGT
h -t 76.495589601 -s 0 -d -1 -p tcp -e 1040 -c 2 -a 0 -i 28 -k AGT
+ -t 76.495589601 -s 0 -d 1 -p tcp -e 1060 -c 2 -a 0 -i 28 -k RTR 
- -t 76.495589601 -s 0 -d 1 -p tcp -e 1060 -c 2 -a 0 -i 28 -k RTR
h -t 76.495589601 -s 0 -d 1 -p tcp -e 1060 -c 2 -a 0 -i 28 -k RTR
+ -t 76.495589601 -s 0 -d -1 -p tcp -e 1040 -c 2 -a 0 -i 29 -k AGT 
- -t 76.495589601 -s 0 -d -1 -p tcp -e 1040 -c 2 -a 0 -i 29 -k AGT
h -t 76.495589601 -s 0 -d -1 -p tcp -e 1040 -c 2 -a 0 -i 29 -k AGT
+ -t 76.495589601 -s 0 -d 1 -p tcp -e 1060 -c 2 -a 0 -i 29 -k RTR 
- -t 76.495589601 -s 0 -d 1 -p tcp -e 1060 -c 2 -a 0 -i 29 -k RTR
h -t 76.495589601 -s 0 -d 1 -p tcp -e 1060 -c 2 -a 0 -i 29 -k RTR
r -t 76.505894838 -s 1 -d 1 -p tcp -e 1060 -c 2 -a 0 -i 26 -k AGT
+ -t 76.505894838 -s 1 -d -1 -p ack -e 40 -c 2 -a 0 -i 30 -k AGT 
- -t 76.505894838 -s 1 -d -1 -p ack -e 40 -c 2 -a 0 -i 30 -k AGT
h -t 76.505894838 -s 1 -d -1 -p ack -e 40 -c 2 -a 0 -i 30 -k AGT
+ -t 76.505894838 -s 1 -d 0 -p ack -e 60 -c 2 -a 0 -i 30 -k RTR 
- -t 76.505894838 -s 1 -d 0 -p ack -e 60 -c 2 -a 0 -i 30 -k RTR
h -t 76.505894838 -s 1 -d 0 -p ack -e 60 -c 2 -a 0 -i 30 -k RTR
r -t 76.507940074 -s 0 -d 0 -p ack -e 60 -c 2 -a 0 -i 30 -k AGT
+ -t 76.507940074 -s 0 -d -1 -p tcp -e 1040 -c 2 -a 0 -i 31 -k AGT 
- -t 76.507940074 -s 0 -d -1 -p tcp -e 1040 -c 2 -a 0 -i 31 -k AGT
h -t 76.507940074 -s 0 -d -1 -p tcp -e 1040 -c 2 -a 0 -i 31 -k AGT
+ -t 76.507940074 -s 0 -d 1 -p tcp -e 1060 -c 2 -a 0 -i 31 -k RTR 
- -t 76.507940074 -s 0 -d 1 -p tcp -e 1060 -c 2 -a 0 -i 31 -k RTR
h -t 76.507940074 -s 0 -d 1 -p tcp -e 1060 -c 2 -a 0 -i 31 -k RTR
r -t 76.518465309 -s 1 -d 1 -p tcp -e 1060 -c 2 -a 0 -i 28 -k AGT
+ -t 76.518465309 -s 1 -d -1 -p ack -e 40 -c 2 -a 0 -i 32 -k AGT 
- -t 76.518465309 -s 1 -d -1 -p ack -e 40 -c 2 -a 0 -i 32 -k AGT
h -t 76.518465309 -s 1 -d -1 -p ack -e 40 -c 2 -a 0 -i 32 -k AGT
+ -t 76.518465309 -s 1 -d 0 -p ack -e 60 -c 2 -a 0 -i 32 -k RTR 
- -t 76.518465309 -s 1 -d 0 -p ack -e 60 -c 2 -a 0 -i 32 -k RTR
h -t 76.518465309 -s 1 -d 0 -p ack -e 60 -c 2 -a 0 -i 32 -k RTR
r -t 76.528890954 -s 1 -d 1 -p tcp -e 1060 -c 2 -a 0 -i 29 -k AGT
+ -t 76.528890954 -s 1 -d -1 -p ack -e 40 -c 2 -a 0 -i 33 -k AGT 
- -t 76.528890954 -s 1 -d -1 -p ack -e 40 -c 2 -a 0 -i 33 -k AGT
h -t 76.528890954 -s 1 -d -1 -p ack -e 40 -c 2 -a 0 -i 33 -k AGT
+ -t 76.528890954 -s 1 -d 0 -p ack -e 60 -c 2 -a 0 -i 33 -k RTR 
- -t 76.528890954 -s 1 -d 0 -p ack -e 60 -c 2 -a 0 -i 33 -k RTR
h -t 76.528890954 -s 1 -d 0 -p ack -e 60 -c 2 -a 0 -i 33 -k RTR
r -t 76.531036186 -s 0 -d 0 -p ack -e 60 -c 2 -a 0 -i 32 -k AGT
+ -t 76.531036186 -s 0 -d -1 -p tcp -e 1040 -c 2 -a 0 -i 34 -k AGT 
- -t 76.531036186 -s 0 -d -1 -p tcp -e 1040 -c 2 -a 0 -i 34 -k AGT
h -t 76.531036186 -s 0 -d -1 -p tcp -e 1040 -c 2 -a 0 -i 34 -k AGT
+ -t 76.531036186 -s 0 -d 1 -p tcp -e 1060 -c 2 -a 0 -i 34 -k RTR 
- -t 76.531036186 -s 0 -d 1 -p tcp -e 1060 -c 2 -a 0 -i 34 -k RTR
h -t 76.531036186 -s 0 -d 1 -p tcp -e 1060 -c 2 -a 0 -i 34 -k RTR
r -t 76.533321828 -s 0 -d 0 -p ack -e 60 -c 2 -a 0 -i 33 -k AGT
+ -t 76.533321828 -s 0 -d -1 -p tcp -e 1040 -c 2 -a 0 -i 35 -k AGT 
- -t 76.533321828 -s 0 -d -1 -p tcp -e 1040 -c 2 -a 0 -i 35 -k AGT
h -t 76.533321828 -s 0 -d -1 -p tcp -e 1040 -c 2 -a 0 -i 35 -k AGT
+ -t 76.533321828 -s 0 -d 1 -p tcp -e 1060 -c 2 -a 0 -i 35 -k RTR 
- -t 76.533321828 -s 0 -d 1 -p tcp -e 1060 -c 2 -a 0 -i 35 -k RTR
h -t 76.533321828 -s 0 -d 1 -p tcp -e 1060 -c 2 -a 0 -i 35 -k RTR
+ -t 76.533321828 -s 0 -d -1 -p tcp -e 1040 -c 2 -a 0 -i 36 -k AGT 
- -t 76.533321828 -s 0 -d -1 -p tcp -e 1040 -c 2 -a 0 -i 36 -k AGT
h -t 76.533321828 -s 0 -d -1 -p tcp -e 1040 -c 2 -a 0 -i 36 -k AGT
+ -t 76.533321828 -s 0 -d 1 -p tcp -e 1060 -c 2 -a 0 -i 36 -k RTR 
- -t 76.533321828 -s 0 -d 1 -p tcp -e 1060 -c 2 -a 0 -i 36 -k RTR
h -t 76.533321828 -s 0 -d 1 -p tcp -e 1060 -c 2 -a 0 -i 36 -k RTR
r -t 76.543407060 -s 1 -d 1 -p tcp -e 1060 -c 2 -a 0 -i 31 -k AGT
+ -t 76.543407060 -s 1 -d -1 -p ack -e 40 -c 2 -a 0 -i 37 -k AGT 
- -t 76.543407060 -s 1 -d -1 -p ack -e 40 -c 2 -a 0 -i 37 -k AGT
h -t 76.543407060 -s 1 -d -1 -p ack -e 40 -c 2 -a 0 -i 37 -k AGT
+ -t 76.543407060 -s 1 -d 0 -p ack -e 60 -c 2 -a 0 -i 37 -k RTR 
- -t 76.543407060 -s 1 -d 0 -p ack -e 60 -c 2 -a 0 -i 37 -k RTR
h -t 76.543407060 -s 1 -d 0 -p ack -e 60 -c 2 -a 0 -i 37 -k RTR
r -t 76.545612290 -s 0 -d 0 -p ack -e 60 -c 2 -a 0 -i 37 -k AGT
+ -t 76.545612290 -s 0 -d -1 -p tcp -e 1040 -c 2 -a 0 -i 38 -k AGT 
- -t 76.545612290 -s 0 -d -1 -p tcp -e 1040 -c 2 -a 0 -i 38 -k AGT
h -t 76.545612290 -s 0 -d -1 -p tcp -e 1040 -c 2 -a 0 -i 38 -k AGT
+ -t 76.545612290 -s 0 -d 1 -p tcp -e 1060 -c 2 -a 0 -i 38 -k RTR 
- -t 76.545612290 -s 0 -d 1 -p tcp -e 1060 -c 2 -a 0 -i 38 -k RTR
h -t 76.545612290 -s 0 -d 1 -p tcp -e 1060 -c 2 -a 0 -i 38 -k RTR
r -t 76.555697519 -s 1 -d 1 -p tcp -e 1060 -c 2 -a 0 -i 34 -k AGT
+ -t 76.555697519 -s 1 -d -1 -p ack -e 40 -c 2 -a 0 -i 39 -k AGT 
- -t 76.555697519 -s 1 -d -1 -p ack -e 40 -c 2 -a 0 -i 39 -k AGT
h -t 76.555697519 -s 1 -d -1 -p ack -e 40 -c 2 -a 0 -i 39 -k AGT
+ -t 76.555697519 -s 1 -d 0 -p ack -e 60 -c 2 -a 0 -i 39 -k RTR 
- -t 76.555697519 -s 1 -d 0 -p ack -e 60 -c 2 -a 0 -i 39 -k RTR
h -t 76.555697519 -s 1 -d 0 -p ack -e 60 -c 2 -a 0 -i 39 -k RTR
r -t 76.565723157 -s 1 -d 1 -p tcp -e 1060 -c 2 -a 0 -i 35 -k AGT
+ -t 76.565723157 -s 1 -d -1 -p ack -e 40 -c 2 -a 0 -i 40 -k AGT 
- -t 76.565723157 -s 1 -d -1 -p ack -e 40 -c 2 -a 0 -i 40 -k AGT
h -t 76.565723157 -s 1 -d -1 -p ack -e 40 -c 2 -a 0 -i 40 -k AGT
+ -t 76.565723157 -s 1 -d 0 -p ack -e 60 -c 2 -a 0 -i 40 -k RTR 
- -t 76.565723157 -s 1 -d 0 -p ack -e 60 -c 2 -a 0 -i 40 -k RTR
h -t 76.565723157 -s 1 -d 0 -p ack -e 60 -c 2 -a 0 -i 40 -k RTR
r -t 76.567928383 -s 0 -d 0 -p ack -e 60 -c 2 -a 0 -i 39 -k AGT
+ -t 76.567928383 -s 0 -d -1 -p tcp -e 1040 -c 2 -a 0 -i 41 -k AGT 
- -t 76.567928383 -s 0 -d -1 -p tcp -e 1040 -c 2 -a 0 -i 41 -k AGT
h -t 76.567928383 -s 0 -d -1 -p tcp -e 1040 -c 2 -a 0 -i 41 -k AGT
+ -t 76.567928383 -s 0 -d 1 -p tcp -e 1060 -c 2 -a 0 -i 41 -k RTR 
- -t 76.567928383 -s 0 -d 1 -p tcp -e 1060 -c 2 -a 0 -i 41 -k RTR
h -t 76.567928383 -s 0 -d 1 -p tcp -e 1060 -c 2 -a 0 -i 41 -k RTR
r -t 76.570134018 -s 0 -d 0 -p ack -e 60 -c 2 -a 0 -i 40 -k AGT
+ -t 76.570134018 -s 0 -d -1 -p tcp -e 1040 -c 2 -a 0 -i 42 -k AGT 
- -t 76.570134018 -s 0 -d -1 -p tcp -e 1040 -c 2 -a 0 -i 42 -k AGT
h -t 76.570134018 -s 0 -d -1 -p tcp -e 1040 -c 2 -a 0 -i 42 -k AGT
+ -t 76.570134018 -s 0 -d 1 -p tcp -e 1060 -c 2 -a 0 -i 42 -k RTR 
- -t 76.570134018 -s 0 -d 1 -p tcp -e 1060 -c 2 -a 0 -i 42 -k RTR
h -t 76.570134018 -s 0 -d 1 -p tcp -e 1060 -c 2 -a 0 -i 42 -k RTR
r -t 76.580279244 -s 1 -d 1 -p tcp -e 1060 -c 2 -a 0 -i 36 -k AGT
+ -t 76.580279244 -s 1 -d -1 -p ack -e 40 -c 2 -a 0 -i 43 -k AGT 
- -t 76.580279244 -s 1 -d -1 -p ack -e 40 -c 2 -a 0 -i 43 -k AGT
h -t 76.580279244 -s 1 -d -1 -p ack -e 40 -c 2 -a 0 -i 43 -k AGT
+ -t 76.580279244 -s 1 -d 0 -p ack -e 60 -c 2 -a 0 -i 43 -k RTR 
- -t 76.580279244 -s 1 -d 0 -p ack -e 60 -c 2 -a 0 -i 43 -k RTR
h -t 76.580279244 -s 1 -d 0 -p ack -e 60 -c 2 -a 0 -i 43 -k RTR
r -t 76.582304469 -s 0 -d 0 -p ack -e 60 -c 2 -a 0 -i 43 -k AGT
+ -t 76.582304469 -s 0 -d -1 -p tcp -e 1040 -c 2 -a 0 -i 44 -k AGT 
- -t 76.582304469 -s 0 -d -1 -p tcp -e 1040 -c 2 -a 0 -i 44 -k AGT
h -t 76.582304469 -s 0 -d -1 -p tcp -e 1040 -c 2 -a 0 -i 44 -k AGT
+ -t 76.582304469 -s 0 -d 1 -p tcp -e 1060 -c 2 -a 0 -i 44 -k RTR 
- -t 76.582304469 -s 0 -d 1 -p tcp -e 1060 -c 2 -a 0 -i 44 -k RTR
h -t 76.582304469 -s 0 -d 1 -p tcp -e 1060 -c 2 -a 0 -i 44 -k RTR
r -t 76.592429693 -s 1 -d 1 -p tcp -e 1060 -c 2 -a 0 -i 38 -k AGT
+ -t 76.592429693 -s 1 -d -1 -p ack -e 40 -c 2 -a 0 -i 45 -k AGT 
- -t 76.592429693 -s 1 -d -1 -p ack -e 40 -c 2 -a 0 -i 45 -k AGT
h -t 76.592429693 -s 1 -d -1 -p ack -e 40 -c 2 -a 0 -i 45 -k AGT
+ -t 76.592429693 -s 1 -d 0 -p ack -e 60 -c 2 -a 0 -i 45 -k RTR 
- -t 76.592429693 -s 1 -d 0 -p ack -e 60 -c 2 -a 0 -i 45 -k RTR
h -t 76.592429693 -s 1 -d 0 -p ack -e 60 -c 2 -a 0 -i 45 -k RTR
r -t 76.594734915 -s 0 -d 0 -p ack -e 60 -c 2 -a 0 -i 45 -k AGT
+ -t 76.594734915 -s 0 -d -1 -p tcp -e 1040 -c 2 -a 0 -i 46 -k AGT 
- -t 76.594734915 -s 0 -d -1 -p tcp -e 1040 -c 2 -a 0 -i 46 -k AGT
h -t 76.594734915 -s 0 -d -1 -p tcp -e 1040 -c 2 -a 0 -i 46 -k AGT
+ -t 76.594734915 -s 0 -d 1 -p tcp -e 1060 -c 2 -a 0 -i 46 -k RTR 
- -t 76.594734915 -s 0 -d 1 -p tcp -e 1060 -c 2 -a 0 -i 46 -k RTR
h -t 76.594734915 -s 0 -d 1 -p tcp -e 1060 -c 2 -a 0 -i 46 -k RTR
+ -t 76.594734915 -s 0 -d -1 -p tcp -e 1040 -c 2 -a 0 -i 47 -k AGT 
- -t 76.594734915 -s 0 -d -1 -p tcp -e 1040 -c 2 -a 0 -i 47 -k AGT
h -t 76.594734915 -s 0 -d -1 -p tcp -e 1040 -c 2 -a 0 -i 47 -k AGT
+ -t 76.594734915 -s 0 -d 1 -p tcp -e 1060 -c 2 -a 0 -i 47 -k RTR 
- -t 76.594734915 -s 0 -d 1 -p tcp -e 1060 -c 2 -a 0 -i 47 -k RTR
h -t 76.594734915 -s 0 -d 1 -p tcp -e 1060 -c 2 -a 0 -i 47 -k RTR
r -t 76.604820137 -s 1 -d 1 -p tcp -e 1060 -c 2 -a 0 -i 41 -k AGT
+ -t 76.604820137 -s 1 -d -1 -p ack -e 40 -c 2 -a 0 -i 48 -k AGT 
- -t 76.604820137 -s 1 -d -1 -p ack -e 40 -c 2 -a 0 -i 48 -k AGT
h -t 76.604820137 -s 1 -d -1 -p ack -e 40 -c 2 -a 0 -i 48 -k AGT
+ -t 76.604820137 -s 1 -d 0 -p ack -e 60 -c 2 -a 0 -i 48 -k RTR 
- -t 76.604820137 -s 1 -d 0 -p ack -e 60 -c 2 -a 0 -i 48 -k RTR
h -t 76.604820137 -s 1 -d 0 -p ack -e 60 -c 2 -a 0 -i 48 -k RTR
r -t 76.606845358 -s 0 -d 0 -p ack -e 60 -c 2 -a 0 -i 48 -k AGT
+ -t 76.606845358 -s 0 -d -1 -p tcp -e 1040 -c 2 -a 0 -i 49 -k AGT 
- -t 76.606845358 -s 0 -d -1 -p tcp -e 1040 -c 2 -a 0 -i 49 -k AGT
h -t 76.606845358 -s 0 -d -1 -p tcp -e 1040 -c 2 -a 0 -i 49 -k AGT
+ -t 76.606845358 -s 0 -d 1 -p tcp -e 1060 -c 2 -a 0 -i 49 -k RTR 
- -t 76.606845358 -s 0 -d 1 -p tcp -e 1060 -c 2 -a 0 -i 49 -k RTR
h -t 76.606845358 -s 0 -d 1 -p tcp -e 1060 -c 2 -a 0 -i 49 -k RTR
r -t 76.616970579 -s 1 -d 1 -p tcp -e 1060 -c 2 -a 0 -i 42 -k AGT
+ -t 76.616970579 -s 1 -d -1 -p ack -e 40 -c 2 -a 0 -i 50 -k AGT 
- -t 76.616970579 -s 1 -d -1 -p ack -e 40 -c 2 -a 0 -i 50 -k AGT
h -t 76.616970579 -s 1 -d -1 -p ack -e 40 -c 2 -a 0 -i 50 -k AGT
+ -t 76.616970579 -s 1 -d 0 -p ack -e 60 -c 2 -a 0 -i 50 -k RTR 
- -t 76.616970579 -s 1 -d 0 -p ack -e 60 -c 2 -a 0 -i 50 -k RTR
h -t 76.616970579 -s 1 -d 0 -p ack -e 60 -c 2 -a 0 -i 50 -k RTR
r -t 76.626956204 -s 1 -d 1 -p tcp -e 1060 -c 2 -a 0 -i 44 -k AGT
+ -t 76.626956204 -s 1 -d -1 -p ack -e 40 -c 2 -a 0 -i 51 -k AGT 
- -t 76.626956204 -s 1 -d -1 -p ack -e 40 -c 2 -a 0 -i 51 -k AGT
h -t 76.626956204 -s 1 -d -1 -p ack -e 40 -c 2 -a 0 -i 51 -k AGT
+ -t 76.626956204 -s 1 -d 0 -p ack -e 60 -c 2 -a 0 -i 51 -k RTR 
- -t 76.626956204 -s 1 -d 0 -p ack -e 60 -c 2 -a 0 -i 51 -k RTR
h -t 76.626956204 -s 1 -d 0 -p ack -e 60 -c 2 -a 0 -i 51 -k RTR
r -t 76.629041421 -s 0 -d 0 -p ack -e 60 -c 2 -a 0 -i 50 -k AGT
+ -t 76.629041421 -s 0 -d -1 -p tcp -e 1040 -c 2 -a 0 -i 52 -k AGT 
- -t 76.629041421 -s 0 -d -1 -p tcp -e 1040 -c 2 -a 0 -i 52 -k AGT
h -t 76.629041421 -s 0 -d -1 -p tcp -e 1040 -c 2 -a 0 -i 52 -k AGT
+ -t 76.629041421 -s 0 -d 1 -p tcp -e 1060 -c 2 -a 0 -i 52 -k RTR 
- -t 76.629041421 -s 0 -d 1 -p tcp -e 1060 -c 2 -a 0 -i 52 -k RTR
h -t 76.629041421 -s 0 -d 1 -p tcp -e 1060 -c 2 -a 0 -i 52 -k RTR
r -t 76.639086638 -s 1 -d 1 -p tcp -e 1060 -c 2 -a 0 -i 46 -k AGT
+ -t 76.639086638 -s 1 -d -1 -p ack -e 40 -c 2 -a 0 -i 53 -k AGT 
- -t 76.639086638 -s 1 -d -1 -p ack -e 40 -c 2 -a 0 -i 53 -k AGT
h -t 76.639086638 -s 1 -d -1 -p ack -e 40 -c 2 -a 0 -i 53 -k AGT
+ -t 76.639086638 -s 1 -d 0 -p ack -e 60 -c 2 -a 0 -i 53 -k RTR 
- -t 76.639086638 -s 1 -d 0 -p ack -e 60 -c 2 -a 0 -i 53 -k RTR
h -t 76.639086638 -s 1 -d 0 -p ack -e 60 -c 2 -a 0 -i 53 -k RTR
r -t 76.641391854 -s 0 -d 0 -p ack -e 60 -c 2 -a 0 -i 51 -k AGT
+ -t 76.641391854 -s 0 -d -1 -p tcp -e 1040 -c 2 -a 0 -i 54 -k AGT 
- -t 76.641391854 -s 0 -d -1 -p tcp -e 1040 -c 2 -a 0 -i 54 -k AGT
h -t 76.641391854 -s 0 -d -1 -p tcp -e 1040 -c 2 -a 0 -i 54 -k AGT
+ -t 76.641391854 -s 0 -d 1 -p tcp -e 1060 -c 2 -a 0 -i 54 -k RTR 
- -t 76.641391854 -s 0 -d 1 -p tcp -e 1060 -c 2 -a 0 -i 54 -k RTR
h -t 76.641391854 -s 0 -d 1 -p tcp -e 1060 -c 2 -a 0 -i 54 -k RTR
r -t 76.651397069 -s 1 -d 1 -p tcp -e 1060 -c 2 -a 0 -i 47 -k AGT
+ -t 76.651397069 -s 1 -d -1 -p ack -e 40 -c 2 -a 0 -i 55 -k AGT 
- -t 76.651397069 -s 1 -d -1 -p ack -e 40 -c 2 -a 0 -i 55 -k AGT
h -t 76.651397069 -s 1 -d -1 -p ack -e 40 -c 2 -a 0 -i 55 -k AGT
+ -t 76.651397069 -s 1 -d 0 -p ack -e 60 -c 2 -a 0 -i 55 -k RTR 
- -t 76.651397069 -s 1 -d 0 -p ack -e 60 -c 2 -a 0 -i 55 -k RTR
h -t 76.651397069 -s 1 -d 0 -p ack -e 60 -c 2 -a 0 -i 55 -k RTR
r -t 76.653802283 -s 0 -d 0 -p ack -e 60 -c 2 -a 0 -i 53 -k AGT
+ -t 76.653802283 -s 0 -d -1 -p tcp -e 1040 -c 2 -a 0 -i 56 -k AGT 
- -t 76.653802283 -s 0 -d -1 -p tcp -e 1040 -c 2 -a 0 -i 56 -k AGT
h -t 76.653802283 -s 0 -d -1 -p tcp -e 1040 -c 2 -a 0 -i 56 -k AGT
+ -t 76.653802283 -s 0 -d 1 -p tcp -e 1060 -c 2 -a 0 -i 56 -k RTR 
- -t 76.653802283 -s 0 -d 1 -p tcp -e 1060 -c 2 -a 0 -i 56 -k RTR
h -t 76.653802283 -s 0 -d 1 -p tcp -e 1060 -c 2 -a 0 -i 56 -k RTR
r -t 76.663887496 -s 1 -d 1 -p tcp -e 1060 -c 2 -a 0 -i 49 -k AGT
+ -t 76.663887496 -s 1 -d -1 -p ack -e 40 -c 2 -a 0 -i 57 -k AGT 
- -t 76.663887496 -s 1 -d -1 -p ack -e 40 -c 2 -a 0 -i 57 -k AGT
h -t 76.663887496 -s 1 -d -1 -p ack -e 40 -c 2 -a 0 -i 57 -k AGT
+ -t 76.663887496 -s 1 -d 0 -p ack -e 60 -c 2 -a 0 -i 57 -k RTR 
- -t 76.663887496 -s 1 -d 0 -p ack -e 60 -c 2 -a 0 -i 57 -k RTR
h -t 76.663887496 -s 1 -d 0 -p ack -e 60 -c 2 -a 0 -i 57 -k RTR
r -t 76.674033112 -s 1 -d 1 -p tcp -e 1060 -c 2 -a 0 -i 52 -k AGT
+ -t 76.674033112 -s 1 -d -1 -p ack -e 40 -c 2 -a 0 -i 58 -k AGT 
- -t 76.674033112 -s 1 -d -1 -p ack -e 40 -c 2 -a 0 -i 58 -k AGT
h -t 76.674033112 -s 1 -d -1 -p ack -e 40 -c 2 -a 0 -i 58 -k AGT
+ -t 76.674033112 -s 1 -d 0 -p ack -e 60 -c 2 -a 0 -i 58 -k RTR 
- -t 76.674033112 -s 1 -d 0 -p ack -e 60 -c 2 -a 0 -i 58 -k RTR
h -t 76.674033112 -s 1 -d 0 -p ack -e 60 -c 2 -a 0 -i 58 -k RTR
r -t 76.684038726 -s 1 -d 1 -p tcp -e 1060 -c 2 -a 0 -i 54 -k AGT
+ -t 76.684038726 -s 1 -d -1 -p ack -e 40 -c 2 -a 0 -i 59 -k AGT 
- -t 76.684038726 -s 1 -d -1 -p ack -e 40 -c 2 -a 0 -i 59 -k AGT
h -t 76.684038726 -s 1 -d -1 -p ack -e 40 -c 2 -a 0 -i 59 -k AGT
+ -t 76.684038726 -s 1 -d 0 -p ack -e 60 -c 2 -a 0 -i 59 -k RTR 
- -t 76.684038726 -s 1 -d 0 -p ack -e 60 -c 2 -a 0 -i 59 -k RTR
h -t 76.684038726 -s 1 -d 0 -p ack -e 60 -c 2 -a 0 -i 59 -k RTR
r -t 76.686083935 -s 0 -d 0 -p ack -e 60 -c 2 -a 0 -i 55 -k AGT
+ -t 76.686083935 -s 0 -d -1 -p tcp -e 1040 -c 2 -a 0 -i 60 -k AGT 
- -t 76.686083935 -s 0 -d -1 -p tcp -e 1040 -c 2 -a 0 -i 60 -k AGT
h -t 76.686083935 -s 0 -d -1 -p tcp -e 1040 -c 2 -a 0 -i 60 -k AGT
+ -t 76.686083935 -s 0 -d 1 -p tcp -e 1060 -c 2 -a 0 -i 60 -k RTR 
- -t 76.686083935 -s 0 -d 1 -p tcp -e 1060 -c 2 -a 0 -i 60 -k RTR
h -t 76.686083935 -s 0 -d 1 -p tcp -e 1060 -c 2 -a 0 -i 60 -k RTR
+ -t 76.686083935 -s 0 -d -1 -p tcp -e 1040 -c 2 -a 0 -i 61 -k AGT 
- -t 76.686083935 -s 0 -d -1 -p tcp -e 1040 -c 2 -a 0 -i 61 -k AGT
h -t 76.686083935 -s 0 -d -1 -p tcp -e 1040 -c 2 -a 0 -i 61 -k AGT
+ -t 76.686083935 -s 0 -d 1 -p tcp -e 1060 -c 2 -a 0 -i 61 -k RTR 
- -t 76.686083935 -s 0 -d 1 -p tcp -e 1060 -c 2 -a 0 -i 61 -k RTR
h -t 76.686083935 -s 0 -d 1 -p tcp -e 1060 -c 2 -a 0 -i 61 -k RTR
r -t 76.688169546 -s 0 -d 0 -p ack -e 60 -c 2 -a 0 -i 57 -k AGT
+ -t 76.688169546 -s 0 -d -1 -p tcp -e 1040 -c 2 -a 0 -i 62 -k AGT 
- -t 76.688169546 -s 0 -d -1 -p tcp -e 1040 -c 2 -a 0 -i 62 -k AGT
h -t 76.688169546 -s 0 -d -1 -p tcp -e 1040 -c 2 -a 0 -i 62 -k AGT
+ -t 76.688169546 -s 0 -d 1 -p tcp -e 1060 -c 2 -a 0 -i 62 -k RTR 
- -t 76.688169546 -s 0 -d 1 -p tcp -e 1060 -c 2 -a 0 -i 62 -k RTR
h -t 76.688169546 -s 0 -d 1 -p tcp -e 1060 -c 2 -a 0 -i 62 -k RTR
r -t 76.690155157 -s 0 -d 0 -p ack -e 60 -c 2 -a 0 -i 58 -k AGT
+ -t 76.690155157 -s 0 -d -1 -p tcp -e 1040 -c 2 -a 0 -i 63 -k AGT 
- -t 76.690155157 -s 0 -d -1 -p tcp -e 1040 -c 2 -a 0 -i 63 -k AGT
h -t 76.690155157 -s 0 -d -1 -p tcp -e 1040 -c 2 -a 0 -i 63 -k AGT
+ -t 76.690155157 -s 0 -d 1 -p tcp -e 1060 -c 2 -a 0 -i 63 -k RTR 
- -t 76.690155157 -s 0 -d 1 -p tcp -e 1060 -c 2 -a 0 -i 63 -k RTR
h -t 76.690155157 -s 0 -d 1 -p tcp -e 1060 -c 2 -a 0 -i 63 -k RTR
r -t 76.692200768 -s 0 -d 0 -p ack -e 60 -c 2 -a 0 -i 59 -k AGT
+ -t 76.692200768 -s 0 -d -1 -p tcp -e 1040 -c 2 -a 0 -i 64 -k AGT 
- -t 76.692200768 -s 0 -d -1 -p tcp -e 1040 -c 2 -a 0 -i 64 -k AGT
h -t 76.692200768 -s 0 -d -1 -p tcp -e 1040 -c 2 -a 0 -i 64 -k AGT
+ -t 76.692200768 -s 0 -d 1 -p tcp -e 1060 -c 2 -a 0 -i 64 -k RTR 
- -t 76.692200768 -s 0 -d 1 -p tcp -e 1060 -c 2 -a 0 -i 64 -k RTR
h -t 76.692200768 -s 0 -d 1 -p tcp -e 1060 -c 2 -a 0 -i 64 -k RTR
r -t 76.702245975 -s 1 -d 1 -p tcp -e 1060 -c 2 -a 0 -i 56 -k AGT
+ -t 76.702245975 -s 1 -d -1 -p ack -e 40 -c 2 -a 0 -i 65 -k AGT 
- -t 76.702245975 -s 1 -d -1 -p ack -e 40 -c 2 -a 0 -i 65 -k AGT
h -t 76.702245975 -s 1 -d -1 -p ack -e 40 -c 2 -a 0 -i 65 -k AGT
+ -t 76.702245975 -s 1 -d 0 -p ack -e 60 -c 2 -a 0 -i 65 -k RTR 
- -t 76.702245975 -s 1 -d 0 -p ack -e 60 -c 2 -a 0 -i 65 -k RTR
h -t 76.702245975 -s 1 -d 0 -p ack -e 60 -c 2 -a 0 -i 65 -k RTR
r -t 76.704711181 -s 0 -d 0 -p ack -e 60 -c 2 -a 0 -i 65 -k AGT
+ -t 76.704711181 -s 0 -d -1 -p tcp -e 1040 -c 2 -a 0 -i 66 -k AGT 
- -t 76.704711181 -s 0 -d -1 -p tcp -e 1040 -c 2 -a 0 -i 66 -k AGT
h -t 76.704711181 -s 0 -d -1 -p tcp -e 1040 -c 2 -a 0 -i 66 -k AGT
+ -t 76.704711181 -s 0 -d 1 -p tcp -e 1060 -c 2 -a 0 -i 66 -k RTR 
- -t 76.704711181 -s 0 -d 1 -p tcp -e 1060 -c 2 -a 0 -i 66 -k RTR
h -t 76.704711181 -s 0 -d 1 -p tcp -e 1060 -c 2 -a 0 -i 66 -k RTR
r -t 76.714836387 -s 1 -d 1 -p tcp -e 1060 -c 2 -a 0 -i 60 -k AGT
+ -t 76.714836387 -s 1 -d -1 -p ack -e 40 -c 2 -a 0 -i 67 -k AGT 
- -t 76.714836387 -s 1 -d -1 -p ack -e 40 -c 2 -a 0 -i 67 -k AGT
h -t 76.714836387 -s 1 -d -1 -p ack -e 40 -c 2 -a 0 -i 67 -k AGT
+ -t 76.714836387 -s 1 -d 0 -p ack -e 60 -c 2 -a 0 -i 67 -k RTR 
- -t 76.714836387 -s 1 -d 0 -p ack -e 60 -c 2 -a 0 -i 67 -k RTR
h -t 76.714836387 -s 1 -d 0 -p ack -e 60 -c 2 -a 0 -i 67 -k RTR
r -t 76.724841993 -s 1 -d 1 -p tcp -e 1060 -c 2 -a 0 -i 61 -k AGT
+ -t 76.724841993 -s 1 -d -1 -p ack -e 40 -c 2 -a 0 -i 68 -k AGT 
- -t 76.724841993 -s 1 -d -1 -p ack -e 40 -c 2 -a 0 -i 68 -k AGT
h -t 76.724841993 -s 1 -d -1 -p ack -e 40 -c 2 -a 0 -i 68 -k AGT
+ -t 76.724841993 -s 1 -d 0 -p ack -e 60 -c 2 -a 0 -i 68 -k RTR 
- -t 76.724841993 -s 1 -d 0 -p ack -e 60 -c 2 -a 0 -i 68 -k RTR
h -t 76.724841993 -s 1 -d 0 -p ack -e 60 -c 2 -a 0 -i 68 -k RTR
r -t 76.734847597 -s 1 -d 1 -p tcp -e 1060 -c 2 -a 0 -i 62 -k AGT
+ -t 76.734847597 -s 1 -d -1 -p ack -e 40 -c 2 -a 0 -i 69 -k AGT 
- -t 76.734847597 -s 1 -d -1 -p ack -e 40 -c 2 -a 0 -i 69 -k AGT
h -t 76.734847597 -s 1 -d -1 -p ack -e 40 -c 2 -a 0 -i 69 -k AGT
+ -t 76.734847597 -s 1 -d 0 -p ack -e 60 -c 2 -a 0 -i 69 -k RTR 
- -t 76.734847597 -s 1 -d 0 -p ack -e 60 -c 2 -a 0 -i 69 -k RTR
h -t 76.734847597 -s 1 -d 0 -p ack -e 60 -c 2 -a 0 -i 69 -k RTR
r -t 76.744893198 -s 1 -d 1 -p tcp -e 1060 -c 2 -a 0 -i 63 -k AGT
+ -t 76.744893198 -s 1 -d -1 -p ack -e 40 -c 2 -a 0 -i 70 -k AGT 
- -t 76.744893198 -s 1 -d -1 -p ack -e 40 -c 2 -a 0 -i 70 -k AGT
h -t 76.744893198 -s 1 -d -1 -p ack -e 40 -c 2 -a 0 -i 70 -k AGT
+ -t 76.744893198 -s 1 -d 0 -p ack -e 60 -c 2 -a 0 -i 70 -k RTR 
- -t 76.744893198 -s 1 -d 0 -p ack -e 60 -c 2 -a 0 -i 70 -k RTR
h -t 76.744893198 -s 1 -d 0 -p ack -e 60 -c 2 -a 0 -i 70 -k RTR
r -t 76.747078398 -s 0 -d 0 -p ack -e 60 -c 2 -a 0 -i 67 -k AGT
+ -t 76.747078398 -s 0 -d -1 -p tcp -e 1040 -c 2 -a 0 -i 71 -k AGT 
- -t 76.747078398 -s 0 -d -1 -p tcp -e 1040 -c 2 -a 0 -i 71 -k AGT
h -t 76.747078398 -s 0 -d -1 -p tcp -e 1040 -c 2 -a 0 -i 71 -k AGT
+ -t 76.747078398 -s 0 -d 1 -p tcp -e 1060 -c 2 -a 0 -i 71 -k RTR 
- -t 76.747078398 -s 0 -d 1 -p tcp -e 1060 -c 2 -a 0 -i 71 -k RTR
h -t 76.747078398 -s 0 -d 1 -p tcp -e 1060 -c 2 -a 0 -i 71 -k RTR
r -t 76.749083997 -s 0 -d 0 -p ack -e 60 -c 2 -a 0 -i 68 -k AGT
+ -t 76.749083997 -s 0 -d -1 -p tcp -e 1040 -c 2 -a 0 -i 72 -k AGT 